
FAST Summary File

Predictions were generated on 06-Sep-2022 at 10:18:39 using FAST (v8.16.00a-bjj, 27-Jul-2016), compiled as a DLL S-Function for Simulink as a 64-bit application using single precision
  compiled with
    NWTC Subroutine Library (v2.11.02, 13-Mar-2017)
    ElastoDyn (v1.04.00a-bjj, 26-Jul-2016)
    BeamDyn (unknown version, unknown date) [not called]
    InflowWind (v3.03.00, 26-Jul-2016)
    AeroDyn14 (unknown version, unknown date) [not called]
    AeroDyn (v15.04.01, 13-Dec-2016)
    ServoDyn (v1.06.00a-bjj, 26-Jul-2016)
    HydroDyn (unknown version, unknown date) [not called]
    SubDyn (unknown version, unknown date) [not called]
    MAP (unknown version, unknown date) [not called]
    FEAMooring (unknown version, unknown date) [not called]
    MoorDyn (unknown version, unknown date) [not called]
    OrcaFlexInterface (unknown version, unknown date) [not called]
    IceFloe (unknown version, unknown date) [not called]
    IceDyn (unknown version, unknown date) [not called]


Modeling a land-based turbine
Description from the FAST input file: 
  Created 22-Sep-2020 12:54:09.

Interpolation order for input/output time histories: 2 (quadratic)
Number of correction iterations:  1


   Requested Time Steps  
  -------------------------------------------------
  Component          Time Step (s)    Subcycles (-)
  -----------------  ---------------  -------------
  FAST (glue code)    1.000E-02
  InflowWind          1.000E-02              1
  ElastoDyn           1.000E-02              1
  AeroDyn             1.000E-02              1
  ServoDyn            1.000E-02              1
  FAST output files   1.000E-02              1


   Requested Channels in FAST Output File(s)  
  --------------------------------------------
  Number  Name        Units       Generated by
  ------  ----------  ----------  ------------
       1  Time        (s)         FAST
       2  Wind1VelX   (m/s)       InflowWind
       3  Wind1VelY   (m/s)       InflowWind
       4  Wind1VelZ   (m/s)       InflowWind
       5  Wind2VelX   (m/s)       InflowWind
       6  Wind2VelY   (m/s)       InflowWind
       7  Wind2VelZ   (m/s)       InflowWind
       8  Wind3VelX   (m/s)       InflowWind
       9  Wind3VelY   (m/s)       InflowWind
      10  Wind3VelZ   (m/s)       InflowWind
      11  Wind4VelX   (m/s)       InflowWind
      12  Wind4VelY   (m/s)       InflowWind
      13  Wind4VelZ   (m/s)       InflowWind
      14  OoPDefl1    (m)         ElastoDyn
      15  OoPDefl2    (m)         ElastoDyn
      16  OoPDefl3    (m)         ElastoDyn
      17  IPDefl1     (m)         ElastoDyn
      18  IPDefl2     (m)         ElastoDyn
      19  IPDefl3     (m)         ElastoDyn
      20  NcIMUTAxs   (m/s^2)     ElastoDyn
      21  NcIMUTAys   (m/s^2)     ElastoDyn
      22  NcIMUTAzs   (m/s^2)     ElastoDyn
      23  NcIMUTVxs   (m/s)       ElastoDyn
      24  NcIMUTVys   (m/s)       ElastoDyn
      25  NcIMUTVzs   (m/s)       ElastoDyn
      26  RootMOoP1   (kN·m)      ElastoDyn
      27  RootMOoP2   (kN·m)      ElastoDyn
      28  RootMOoP3   (kN·m)      ElastoDyn
      29  RootMIP1    (kN·m)      ElastoDyn
      30  RootMIP2    (kN·m)      ElastoDyn
      31  RootMIP3    (kN·m)      ElastoDyn
      32  RootMFlp1   (kN·m)      ElastoDyn
      33  RootMFlp2   (kN·m)      ElastoDyn
      34  RootMFlp3   (kN·m)      ElastoDyn
      35  RootMEdg1   (kN·m)      ElastoDyn
      36  RootMEdg2   (kN·m)      ElastoDyn
      37  RootMEdg3   (kN·m)      ElastoDyn
      38  TwrBsMxt    (kN·m)      ElastoDyn
      39  TwrBsMyt    (kN·m)      ElastoDyn
      40  TwrBsMzt    (kN·m)      ElastoDyn
      41  LSSTipMya   (kN·m)      ElastoDyn
      42  LSSTipMza   (kN·m)      ElastoDyn
      43  LSSTipVxa   (rpm)       ElastoDyn
      44  GenSpeed    (rpm)       ElastoDyn
      45  BlPitch1    (deg)       ElastoDyn
      46  BlPitch2    (deg)       ElastoDyn
      47  BlPitch3    (deg)       ElastoDyn
      48  Azimuth     (deg)       ElastoDyn
      49  RotPwr      (kW)        ElastoDyn
      50  RotThrust   (kN)        ElastoDyn
      51  RotSpeed    (rpm)       ElastoDyn
      52  HSShftTq    (kN·m)      ElastoDyn
      53  LSShftFya   (kN)        ElastoDyn
      54  LSShftFza   (kN)        ElastoDyn
      55  LSShftFys   (kN)        ElastoDyn
      56  LSShftFzs   (kN)        ElastoDyn
      57  YawBrFyp    (kN)        ElastoDyn
      58  YawBrTDyt   (m)         ElastoDyn
      59  RotTorq     (kN·m)      ElastoDyn
      60  TwHt1ALxt   (m/s^2)     ElastoDyn
      61  TwHt1ALyt   (m/s^2)     ElastoDyn
      62  TwHt2ALxt   (m/s^2)     ElastoDyn
      63  TwHt2ALyt   (m/s^2)     ElastoDyn
      64  TwHt3ALxt   (m/s^2)     ElastoDyn
      65  TwHt3ALyt   (m/s^2)     ElastoDyn
      66  TwHt4ALxt   (m/s^2)     ElastoDyn
      67  TwHt4ALyt   (m/s^2)     ElastoDyn
      68  TwHt5ALxt   (m/s^2)     ElastoDyn
      69  TwHt5ALyt   (m/s^2)     ElastoDyn
      70  TwHt6ALxt   (m/s^2)     ElastoDyn
      71  TwHt6ALyt   (m/s^2)     ElastoDyn
      72  TwHt7ALxt   (m/s^2)     ElastoDyn
      73  TwHt7ALyt   (m/s^2)     ElastoDyn
      74  TwHt8ALxt   (m/s^2)     ElastoDyn
      75  TwHt8ALyt   (m/s^2)     ElastoDyn
      76  TwHt9ALxt   (m/s^2)     ElastoDyn
      77  TwHt9ALyt   (m/s^2)     ElastoDyn
      78  YawBrTAxp   (m/s^2)     ElastoDyn
      79  RtAeroFxh   (N)         AeroDyn
      80  RtAeroFyh   (N)         AeroDyn
      81  RtAeroFzh   (N)         AeroDyn
      82  RtAeroMxh   (NÂ·m)      AeroDyn
      83  RtAeroMyh   (NÂ·m)      AeroDyn
      84  RtAeroMzh   (NÂ·m)      AeroDyn
      85  RtVAvgxh    (m/s)       AeroDyn
      86  RtVAvgyh    (m/s)       AeroDyn
      87  RtAeroPwr   (W)         AeroDyn
      88  GenPwr      (kW)        ServoDyn
      89  GenTq       (kN·m)      ServoDyn
