
Predictions were generated on 06-Sep-2022 at 10:18:39 using FAST (v8.16.00a-bjj, 27-Jul-2016), compiled as a DLL S-Function for Simulink as a 64-bit application using single precision
 linked with  NWTC Subroutine Library (v2.11.02, 13-Mar-2017); ElastoDyn (v1.04.00a-bjj, 26-Jul-2016); InflowWind (v3.03.00, 26-Jul-2016); AeroDyn (v15.04.01, 13-Dec-2016); ServoDyn (v1.06.00a-bjj, 26-Jul-2016)

Description from the FAST input file: Created 22-Sep-2020 12:54:09.

Time      	Wind1VelX 	Wind1VelY 	Wind1VelZ 	Wind2VelX 	Wind2VelY 	Wind2VelZ 	Wind3VelX 	Wind3VelY 	Wind3VelZ 	Wind4VelX 	Wind4VelY 	Wind4VelZ 	OoPDefl1  	OoPDefl2  	OoPDefl3  	IPDefl1   	IPDefl2   	IPDefl3   	NcIMUTAxs 	NcIMUTAys 	NcIMUTAzs 	NcIMUTVxs 	NcIMUTVys 	NcIMUTVzs 	RootMOoP1 	RootMOoP2 	RootMOoP3 	RootMIP1  	RootMIP2  	RootMIP3  	RootMFlp1 	RootMFlp2 	RootMFlp3 	RootMEdg1 	RootMEdg2 	RootMEdg3 	TwrBsMxt  	TwrBsMyt  	TwrBsMzt  	LSSTipMya 	LSSTipMza 	LSSTipVxa 	GenSpeed  	BlPitch1  	BlPitch2  	BlPitch3  	Azimuth   	RotPwr    	RotThrust 	RotSpeed  	HSShftTq  	LSShftFya 	LSShftFza 	LSShftFys 	LSShftFzs 	YawBrFyp  	YawBrTDyt 	RotTorq   	TwHt1ALxt 	TwHt1ALyt 	TwHt2ALxt 	TwHt2ALyt 	TwHt3ALxt 	TwHt3ALyt 	TwHt4ALxt 	TwHt4ALyt 	TwHt5ALxt 	TwHt5ALyt 	TwHt6ALxt 	TwHt6ALyt 	TwHt7ALxt 	TwHt7ALyt 	TwHt8ALxt 	TwHt8ALyt 	TwHt9ALxt 	TwHt9ALyt 	YawBrTAxp 	RtAeroFxh 	RtAeroFyh 	RtAeroFzh 	RtAeroMxh 	RtAeroMyh 	RtAeroMzh 	RtVAvgxh  	RtVAvgyh  	RtAeroPwr 	GenPwr    	GenTq     
(s)       	(m/s)     	(m/s)     	(m/s)     	(m/s)     	(m/s)     	(m/s)     	(m/s)     	(m/s)     	(m/s)     	(m/s)     	(m/s)     	(m/s)     	(m)       	(m)       	(m)       	(m)       	(m)       	(m)       	(m/s^2)   	(m/s^2)   	(m/s^2)   	(m/s)     	(m/s)     	(m/s)     	(kN·m)    	(kN·m)    	(kN·m)    	(kN·m)    	(kN·m)    	(kN·m)    	(kN·m)    	(kN·m)    	(kN·m)    	(kN·m)    	(kN·m)    	(kN·m)    	(kN·m)    	(kN·m)    	(kN·m)    	(kN·m)    	(kN·m)    	(rpm)     	(rpm)     	(deg)     	(deg)     	(deg)     	(deg)     	(kW)      	(kN)      	(rpm)     	(kN·m)    	(kN)      	(kN)      	(kN)      	(kN)      	(kN)      	(m)       	(kN·m)    	(m/s^2)   	(m/s^2)   	(m/s^2)   	(m/s^2)   	(m/s^2)   	(m/s^2)   	(m/s^2)   	(m/s^2)   	(m/s^2)   	(m/s^2)   	(m/s^2)   	(m/s^2)   	(m/s^2)   	(m/s^2)   	(m/s^2)   	(m/s^2)   	(m/s^2)   	(m/s^2)   	(m/s^2)   	(N)       	(N)       	(N)       	(NÂ·m)    	(NÂ·m)    	(NÂ·m)    	(m/s)     	(m/s)     	(W)       	(kW)      	(kN·m)    
